# vtk DataFile Version 4.2
vtk output
ASCII
DATASET POLYDATA
POINTS 2 float
5.84482 4.02587 -14.6121 20.4569 4.02587 -14.6121
LINES 1 3
2 0 1 

POINT_DATA 2
FIELD FieldData 2
scalars 1 2 float
14 16